 Gaussian 09, Revision D.01,
 Gaussian 09:  ES64L-G09RevD.01 24-Apr-2013

 ------------------------------------------------
 # B3LYP/6-31+G* int=ultrafine nosymm pop=nboread
 ------------------------------------------------

 ------
 A_B_60
 ------
 Symbolic Z-matrix:
 Charge =  0 Multiplicity = 1

                          Input orientation:
 ---------------------------------------------------------------------
 Center     Atomic      Atomic             Coordinates (Angstroms)
 Number     Number       Type             X           Y           Z
 ---------------------------------------------------------------------
      1          6           0        0.672749    0.000000    0.000000
      2          6           0       -0.672749    0.000000    0.000000
      3          1           0        1.242623    0.934806    0.000000
      4          1           0        1.242623   -0.934806    0.000000
      5          1           0       -1.242623    0.934806    0.000000
      6          1           0       -1.242623   -0.934806    0.000000
      7          6           0        0.672749    0.000000    5.000000
      8          6           0       -0.672749    0.000000    5.000000
      9          1           0        1.242623    0.467403    4.190434
     10          1           0        1.242623   -0.467403    5.809566
     11          1           0       -1.242623    0.467403    4.190434
     12          1           0       -1.242623   -0.467403    5.809566
 ---------------------------------------------------------------------

 SCF Done:  E(RB3LYP) =  -157.185931701     A.U. after    9 cycles

 Alpha  occ. eigenvalues --  -10.19914 -10.19833 -10.19596 -10.19515  -0.76256
 Alpha  occ. eigenvalues --   -0.75931  -0.58498  -0.58185  -0.47314  -0.46987
 Alpha  occ. eigenvalues --   -0.42319  -0.42005  -0.36367  -0.36048  -0.27684
 Alpha  occ. eigenvalues --   -0.27292
 Alpha virt. eigenvalues --   -0.01259  -0.00589   0.01400   0.02389   0.03320
 Alpha virt. eigenvalues --    0.04276   0.04394   0.06058   0.07595   0.07841
 Alpha virt. eigenvalues --    0.08468   0.09397   0.10234   0.12053   0.13225

 Mulliken charges:
               1
     1  C   -0.368958
     2  C   -0.368958
     3  H    0.182483
     4  H    0.184351
     5  H    0.182483
     6  H    0.184351
     7  C   -0.363714
     8  C   -0.363714
     9  H    0.183707
    10  H    0.182133
    11  H    0.183707
    12  H    0.182133
 Sum of Mulliken charges =   0.00000

 Dipole moment (field-independent basis, Debye):
    X=              0.0000    Y=             -0.0160    Z=             -0.0322  Tot=              0.0360
 Quadrupole moment (field-independent basis, Debye-Ang):
   XX=            -24.8875   YY=            -27.6174   ZZ=            -29.8876
   XY=              0.0000   XZ=              0.0000   YZ=             -1.6049

 Summary of Natural Population Analysis:

                                       Natural Population
                Natural  -----------------------------------------------
    Atom  No    Charge         Core      Valence    Rydberg      Total
 -----------------------------------------------------------------------
      C    1   -0.44364      1.99926     4.42940    0.01497     6.44364
      C    2   -0.44364      1.99926     4.42940    0.01497     6.44364
      H    3    0.22119      0.00000     0.77793    0.00088     0.77881
      H    4    0.22265      0.00000     0.77648    0.00087     0.77735
      H    5    0.22119      0.00000     0.77793    0.00088     0.77881
      H    6    0.22265      0.00000     0.77648    0.00087     0.77735
      C    7   -0.44322      1.99926     4.42894    0.01501     6.44322
      C    8   -0.44322      1.99926     4.42894    0.01501     6.44322
      H    9    0.22264      0.00000     0.77633    0.00103     0.77736
      H   10    0.22037      0.00000     0.77873    0.00090     0.77963
      H   11    0.22264      0.00000     0.77633    0.00103     0.77736
      H   12    0.22037      0.00000     0.77873    0.00090     0.77963
 =======================================================================
   * Total *    0.00000      7.99704    23.93563    0.06733    32.00000

 Normal termination of Gaussian 09 at Sun Sep 18 08:51:17 2016.
