 Gaussian 09, Revision D.01,
 Gaussian 09:  ES64L-G09RevD.01 24-Apr-2013

 ------------------------------------------------
 # B3LYP/6-31+G* int=ultrafine nosymm pop=nboread
 ------------------------------------------------

 ------
 A_B_30
 ------
 Symbolic Z-matrix:
 Charge =  0 Multiplicity = 1

                          Input orientation:
 ---------------------------------------------------------------------
 Center     Atomic      Atomic             Coordinates (Angstroms)
 Number     Number       Type             X           Y           Z
 ---------------------------------------------------------------------
      1          6           0        0.672749    0.000000    0.000000
      2          6           0       -0.672749    0.000000    0.000000
      3          1           0        1.242623    0.934806    0.000000
      4          1           0        1.242623   -0.934806    0.000000
      5          1           0       -1.242623    0.934806    0.000000
      6          1           0       -1.242623   -0.934806    0.000000
      7          6           0        0.672749    0.000000    5.000000
      8          6           0       -0.672749    0.000000    5.000000
      9          1           0        1.242623    0.809566    4.532597
     10          1           0        1.242623   -0.809566    5.467403
     11          1           0       -1.242623    0.809566    4.532597
     12          1           0       -1.242623   -0.809566    5.467403
 ---------------------------------------------------------------------

 SCF Done:  E(RB3LYP) =  -157.185668307     A.U. after    9 cycles

 Alpha  occ. eigenvalues --  -10.19719 -10.19638 -10.19622 -10.19541  -0.76058
 Alpha  occ. eigenvalues --   -0.75956  -0.58311  -0.58213  -0.47130  -0.47026
 Alpha  occ. eigenvalues --   -0.42130  -0.42031  -0.36189  -0.36088  -0.27571
 Alpha  occ. eigenvalues --   -0.27192
 Alpha virt. eigenvalues --   -0.01264  -0.00333   0.01635   0.02532   0.03505
 Alpha virt. eigenvalues --    0.04138   0.04519   0.05990   0.07556   0.08088
 Alpha virt. eigenvalues --    0.08194   0.09570   0.10055   0.11906   0.13202

 Mulliken charges:
               1
     1  C   -0.365225
     2  C   -0.365225
     3  H    0.181341
     4  H    0.183036
     5  H    0.181341
     6  H    0.183036
     7  C   -0.362402
     8  C   -0.362402
     9  H    0.181831
    10  H    0.181419
    11  H    0.181831
    12  H    0.181419
 Sum of Mulliken charges =   0.00000

 Dipole moment (field-independent basis, Debye):
    X=              0.0000    Y=             -0.0142    Z=             -0.0073  Tot=              0.0159
 Quadrupole moment (field-independent basis, Debye-Ang):
   XX=            -24.9078   YY=            -25.7703   ZZ=            -31.7755
   XY=              0.0000   XZ=              0.0000   YZ=             -1.5987

 Summary of Natural Population Analysis:

                                       Natural Population
                Natural  -----------------------------------------------
    Atom  No    Charge         Core      Valence    Rydberg      Total
 -----------------------------------------------------------------------
      C    1   -0.44275      1.99926     4.42849    0.01499     6.44275
      C    2   -0.44275      1.99926     4.42849    0.01499     6.44275
      H    3    0.22072      0.00000     0.77840    0.00088     0.77928
      H    4    0.22205      0.00000     0.77707    0.00088     0.77795
      H    5    0.22072      0.00000     0.77840    0.00088     0.77928
      H    6    0.22205      0.00000     0.77707    0.00088     0.77795
      C    7   -0.44255      1.99926     4.42832    0.01497     6.44255
      C    8   -0.44255      1.99926     4.42832    0.01497     6.44255
      H    9    0.22176      0.00000     0.77733    0.00091     0.77824
      H   10    0.22077      0.00000     0.77834    0.00089     0.77923
      H   11    0.22176      0.00000     0.77733    0.00091     0.77824
      H   12    0.22077      0.00000     0.77834    0.00089     0.77923
 =======================================================================
   * Total *    0.00000      7.99704    23.93591    0.06705    32.00000

 Normal termination of Gaussian 09 at Sun Sep 18 08:50:56 2016.
