 Gaussian 09, Revision D.01,
 Gaussian 09:  ES64L-G09RevD.01 24-Apr-2013

 ------------------------------------------------
 # B3LYP/6-31+G* int=ultrafine nosymm pop=nboread
 ------------------------------------------------

 ------
 A_B_75
 ------
 Symbolic Z-matrix:
 Charge =  0 Multiplicity = 1

                          Input orientation:
 ---------------------------------------------------------------------
 Center     Atomic      Atomic             Coordinates (Angstroms)
 Number     Number       Type             X           Y           Z
 ---------------------------------------------------------------------
      1          6           0        0.672749    0.000000    0.000000
      2          6           0       -0.672749    0.000000    0.000000
      3          1           0        1.242623    0.934806    0.000000
      4          1           0        1.242623   -0.934806    0.000000
      5          1           0       -1.242623    0.934806    0.000000
      6          1           0       -1.242623   -0.934806    0.000000
      7          6           0        0.672749    0.000000    5.000000
      8          6           0       -0.672749    0.000000    5.000000
      9          1           0        1.242623    0.241946    4.097047
     10          1           0        1.242623   -0.241946    5.902953
     11          1           0       -1.242623    0.241946    4.097047
     12          1           0       -1.242623   -0.241946    5.902953
 ---------------------------------------------------------------------

 SCF Done:  E(RB3LYP) =  -157.186061186     A.U. after    9 cycles

 Alpha  occ. eigenvalues --  -10.19993 -10.19912 -10.19583 -10.19502  -0.76337
 Alpha  occ. eigenvalues --   -0.75921  -0.58574  -0.58172  -0.47388  -0.46971
 Alpha  occ. eigenvalues --   -0.42396  -0.41993  -0.36439  -0.36031  -0.27747
 Alpha  occ. eigenvalues --   -0.27315
 Alpha virt. eigenvalues --   -0.01252  -0.00702   0.01307   0.02332   0.03269
 Alpha virt. eigenvalues --    0.04342   0.04352   0.06027   0.07668   0.07758
 Alpha virt. eigenvalues --    0.08589   0.09286   0.10290   0.11909   0.13281

 Mulliken charges:
               1
     1  C   -0.370263
     2  C   -0.370263
     3  H    0.183351
     4  H    0.184476
     5  H    0.183351
     6  H    0.184476
     7  C   -0.365124
     8  C   -0.365124
     9  H    0.184983
    10  H    0.182577
    11  H    0.184983
    12  H    0.182577
 Sum of Mulliken charges =   0.00000

 Dipole moment (field-independent basis, Debye):
    X=              0.0000    Y=             -0.0093    Z=             -0.0467  Tot=              0.0477
 Quadrupole moment (field-independent basis, Debye-Ang):
   XX=            -24.8800   YY=            -28.2956   ZZ=            -29.2263
   XY=              0.0000   XZ=              0.0000   YZ=             -0.9267

 Summary of Natural Population Analysis:

                                       Natural Population
                Natural  -----------------------------------------------
    Atom  No    Charge         Core      Valence    Rydberg      Total
 -----------------------------------------------------------------------
      C    1   -0.44399      1.99926     4.42980    0.01493     6.44399
      C    2   -0.44399      1.99926     4.42980    0.01493     6.44399
      H    3    0.22173      0.00000     0.77740    0.00087     0.77827
      H    4    0.22260      0.00000     0.77653    0.00087     0.77740
      H    5    0.22173      0.00000     0.77740    0.00087     0.77827
      H    6    0.22260      0.00000     0.77653    0.00087     0.77740
      C    7   -0.44356      1.99926     4.42924    0.01506     6.44356
      C    8   -0.44356      1.99926     4.42924    0.01506     6.44356
      H    9    0.22298      0.00000     0.77593    0.00109     0.77702
      H   10    0.22025      0.00000     0.77885    0.00090     0.77975
      H   11    0.22298      0.00000     0.77593    0.00109     0.77702
      H   12    0.22025      0.00000     0.77885    0.00090     0.77975
 =======================================================================
   * Total *    0.00000      7.99705    23.93551    0.06745    32.00000

 Normal termination of Gaussian 09 at Sun Sep 18 08:51:24 2016.
