 Gaussian 09, Revision D.01,
 Gaussian 09:  ES64L-G09RevD.01 24-Apr-2013

 ------------------------------------------------
 # B3LYP/6-31+G* int=ultrafine nosymm pop=nboread
 ------------------------------------------------

 ------
 A_B_45
 ------
 Symbolic Z-matrix:
 Charge =  0 Multiplicity = 1

                          Input orientation:
 ---------------------------------------------------------------------
 Center     Atomic      Atomic             Coordinates (Angstroms)
 Number     Number       Type             X           Y           Z
 ---------------------------------------------------------------------
      1          6           0        0.672749    0.000000    0.000000
      2          6           0       -0.672749    0.000000    0.000000
      3          1           0        1.242623    0.934806    0.000000
      4          1           0        1.242623   -0.934806    0.000000
      5          1           0       -1.242623    0.934806    0.000000
      6          1           0       -1.242623   -0.934806    0.000000
      7          6           0        0.672749    0.000000    5.000000
      8          6           0       -0.672749    0.000000    5.000000
      9          1           0        1.242623    0.661008    4.338992
     10          1           0        1.242623   -0.661008    5.661008
     11          1           0       -1.242623    0.661008    4.338992
     12          1           0       -1.242623   -0.661008    5.661008
 ---------------------------------------------------------------------

 SCF Done:  E(RB3LYP) =  -157.185784409     A.U. after    9 cycles

 Alpha  occ. eigenvalues --  -10.19813 -10.19732 -10.19610 -10.19529  -0.76153
 Alpha  occ. eigenvalues --   -0.75944  -0.58401  -0.58199  -0.47219  -0.47008
 Alpha  occ. eigenvalues --   -0.42221  -0.42019  -0.36275  -0.36069  -0.27617
 Alpha  occ. eigenvalues --   -0.27249
 Alpha virt. eigenvalues --   -0.01264  -0.00452   0.01522   0.02462   0.03401
 Alpha virt. eigenvalues --    0.04206   0.04455   0.06044   0.07555   0.07961
 Alpha virt. eigenvalues --    0.08324   0.09500   0.10145   0.12087   0.13200

 Mulliken charges:
               1
     1  C   -0.367135
     2  C   -0.367135
     3  H    0.181765
     4  H    0.183810
     5  H    0.181765
     6  H    0.183810
     7  C   -0.362596
     8  C   -0.362596
     9  H    0.182493
    10  H    0.181664
    11  H    0.182493
    12  H    0.181664
 Sum of Mulliken charges =   0.00000

 Dipole moment (field-independent basis, Debye):
    X=              0.0000    Y=             -0.0176    Z=             -0.0176  Tot=              0.0249
 Quadrupole moment (field-independent basis, Debye-Ang):
   XX=            -24.8975   YY=            -26.6930   ZZ=            -30.8198
   XY=              0.0000   XZ=              0.0000   YZ=             -1.8504

 Summary of Natural Population Analysis:

                                       Natural Population
                Natural  -----------------------------------------------
    Atom  No    Charge         Core      Valence    Rydberg      Total
 -----------------------------------------------------------------------
      C    1   -0.44318      1.99926     4.42892    0.01500     6.44318
      C    2   -0.44318      1.99926     4.42892    0.01500     6.44318
      H    3    0.22083      0.00000     0.77829    0.00088     0.77917
      H    4    0.22244      0.00000     0.77669    0.00088     0.77756
      H    5    0.22083      0.00000     0.77829    0.00088     0.77917
      H    6    0.22244      0.00000     0.77669    0.00088     0.77756
      C    7   -0.44284      1.99926     4.42860    0.01498     6.44284
      C    8   -0.44284      1.99926     4.42860    0.01498     6.44284
      H    9    0.22220      0.00000     0.77684    0.00096     0.77780
      H   10    0.22056      0.00000     0.77855    0.00089     0.77944
      H   11    0.22220      0.00000     0.77684    0.00096     0.77780
      H   12    0.22056      0.00000     0.77855    0.00089     0.77944
 =======================================================================
   * Total *    0.00000      7.99704    23.93578    0.06718    32.00000

 Normal termination of Gaussian 09 at Sun Sep 18 08:51:03 2016.
