 Gaussian 09, Revision D.01,
 Gaussian 09:  ES64L-G09RevD.01 24-Apr-2013

 ------------------------------------------------
 # B3LYP/6-31+G* int=ultrafine nosymm pop=nboread
 ------------------------------------------------

 ------
 A_B_15
 ------
 Symbolic Z-matrix:
 Charge =  0 Multiplicity = 1

                          Input orientation:
 ---------------------------------------------------------------------
 Center     Atomic      Atomic             Coordinates (Angstroms)
 Number     Number       Type             X           Y           Z
 ---------------------------------------------------------------------
      1          6           0        0.672749    0.000000    0.000000
      2          6           0       -0.672749    0.000000    0.000000
      3          1           0        1.242623    0.934806    0.000000
      4          1           0        1.242623   -0.934806    0.000000
      5          1           0       -1.242623    0.934806    0.000000
      6          1           0       -1.242623   -0.934806    0.000000
      7          6           0        0.672749    0.000000    5.000000
      8          6           0       -0.672749    0.000000    5.000000
      9          1           0        1.242623    0.902953    4.758054
     10          1           0        1.242623   -0.902953    5.241946
     11          1           0       -1.242623    0.902953    4.758054
     12          1           0       -1.242623   -0.902953    5.241946
 ---------------------------------------------------------------------

 SCF Done:  E(RB3LYP) =  -157.185598431     A.U. after    9 cycles

 Alpha  occ. eigenvalues --  -10.19654 -10.19629 -10.19574 -10.19548  -0.75992
 Alpha  occ. eigenvalues --   -0.75962  -0.58250  -0.58220  -0.47069  -0.47037
 Alpha  occ. eigenvalues --   -0.42068  -0.42038  -0.36130  -0.36099  -0.27548
 Alpha  occ. eigenvalues --   -0.27145
 Alpha virt. eigenvalues --   -0.01263  -0.00255   0.01710   0.02580   0.03609
 Alpha virt. eigenvalues --    0.04070   0.04567   0.05940   0.07569   0.08106
 Alpha virt. eigenvalues --    0.08183   0.09610   0.09993   0.11647   0.13213

 Mulliken charges:
               1
     1  C   -0.363773
     2  C   -0.363773
     3  H    0.181290
     4  H    0.182244
     5  H    0.181290
     6  H    0.182244
     7  C   -0.362899
     8  C   -0.362899
     9  H    0.181672
    10  H    0.181467
    11  H    0.181672
    12  H    0.181467
 Sum of Mulliken charges =   0.00000

 Dipole moment (field-independent basis, Debye):
    X=              0.0000    Y=             -0.0076    Z=             -0.0018  Tot=              0.0078
 Quadrupole moment (field-independent basis, Debye-Ang):
   XX=            -24.9156   YY=            -25.0956   ZZ=            -32.4855
   XY=              0.0000   XZ=              0.0000   YZ=             -0.9208

 Summary of Natural Population Analysis:

                                       Natural Population
                Natural  -----------------------------------------------
    Atom  No    Charge         Core      Valence    Rydberg      Total
 -----------------------------------------------------------------------
      C    1   -0.44245      1.99926     4.42821    0.01498     6.44245
      C    2   -0.44245      1.99926     4.42821    0.01498     6.44245
      H    3    0.22085      0.00000     0.77827    0.00088     0.77915
      H    4    0.22160      0.00000     0.77752    0.00088     0.77840
      H    5    0.22085      0.00000     0.77827    0.00088     0.77915
      H    6    0.22160      0.00000     0.77752    0.00088     0.77840
      C    7   -0.44239      1.99926     4.42816    0.01497     6.44239
      C    8   -0.44239      1.99926     4.42816    0.01497     6.44239
      H    9    0.22141      0.00000     0.77770    0.00089     0.77859
      H   10    0.22097      0.00000     0.77814    0.00088     0.77903
      H   11    0.22141      0.00000     0.77770    0.00089     0.77859
      H   12    0.22097      0.00000     0.77814    0.00088     0.77903
 =======================================================================
   * Total *    0.00000      7.99704    23.93598    0.06697    32.00000

 Normal termination of Gaussian 09 at Sun Sep 18 08:50:34 2016.
