 Gaussian 09, Revision D.01,
 Gaussian 09:  ES64L-G09RevD.01 24-Apr-2013

 ------------------------------------------------
 # B3LYP/6-31+G* int=ultrafine nosymm pop=nboread
 ------------------------------------------------

 ------
 A_B_90
 ------
 Symbolic Z-matrix:
 Charge =  0 Multiplicity = 1

                          Input orientation:
 ---------------------------------------------------------------------
 Center     Atomic      Atomic             Coordinates (Angstroms)
 Number     Number       Type             X           Y           Z
 ---------------------------------------------------------------------
      1          6           0        0.672749    0.000000    0.000000
      2          6           0       -0.672749    0.000000    0.000000
      3          1           0        1.242623    0.934806    0.000000
      4          1           0        1.242623   -0.934806    0.000000
      5          1           0       -1.242623    0.934806    0.000000
      6          1           0       -1.242623   -0.934806    0.000000
      7          6           0        0.672749    0.000000    5.000000
      8          6           0       -0.672749    0.000000    5.000000
      9          1           0        1.242623    0.000000    4.065194
     10          1           0        1.242623    0.000000    5.934806
     11          1           0       -1.242623    0.000000    4.065194
     12          1           0       -1.242623    0.000000    5.934806
 ---------------------------------------------------------------------

 SCF Done:  E(RB3LYP) =  -157.186113505     A.U. after    9 cycles

 Alpha  occ. eigenvalues --  -10.20023 -10.19942 -10.19578 -10.19497  -0.76368
 Alpha  occ. eigenvalues --   -0.75916  -0.58603  -0.58167  -0.47416  -0.46964
 Alpha  occ. eigenvalues --   -0.42425  -0.41989  -0.36467  -0.36025  -0.27773
 Alpha  occ. eigenvalues --   -0.27322
 Alpha virt. eigenvalues --   -0.01248  -0.00748   0.01273   0.02311   0.03251
 Alpha virt. eigenvalues --    0.04337   0.04372   0.06004   0.07706   0.07731
 Alpha virt. eigenvalues --    0.08638   0.09234   0.10306   0.11837   0.13316

 Mulliken charges:
               1
     1  C   -0.370731
     2  C   -0.370731
     3  H    0.184102
     4  H    0.184102
     5  H    0.184102
     6  H    0.184102
     7  C   -0.365760
     8  C   -0.365760
     9  H    0.185528
    10  H    0.182759
    11  H    0.185528
    12  H    0.182759
 Sum of Mulliken charges =   0.00000

 Dipole moment (field-independent basis, Debye):
    X=              0.0000    Y=              0.0000    Z=             -0.0529  Tot=              0.0529
 Quadrupole moment (field-independent basis, Debye-Ang):
   XX=            -24.8773   YY=            -28.5442   ZZ=            -28.9890
   XY=              0.0000   XZ=              0.0000   YZ=              0.0000

 Summary of Natural Population Analysis:

                                       Natural Population
                Natural  -----------------------------------------------
    Atom  No    Charge         Core      Valence    Rydberg      Total
 -----------------------------------------------------------------------
      C    1   -0.44413      1.99926     4.42995    0.01491     6.44413
      C    2   -0.44413      1.99926     4.42995    0.01491     6.44413
      H    3    0.22226      0.00000     0.77687    0.00087     0.77774
      H    4    0.22226      0.00000     0.77687    0.00087     0.77774
      H    5    0.22226      0.00000     0.77687    0.00087     0.77774
      H    6    0.22226      0.00000     0.77687    0.00087     0.77774
      C    7   -0.44370      1.99926     4.42936    0.01507     6.44370
      C    8   -0.44370      1.99926     4.42936    0.01507     6.44370
      H    9    0.22311      0.00000     0.77578    0.00111     0.77689
      H   10    0.22021      0.00000     0.77889    0.00090     0.77979
      H   11    0.22311      0.00000     0.77578    0.00111     0.77689
      H   12    0.22021      0.00000     0.77889    0.00090     0.77979
 =======================================================================
   * Total *    0.00000      7.99705    23.93546    0.06749    32.00000

 Normal termination of Gaussian 09 at Sun Sep 18 08:51:37 2016.
