 Gaussian 09, Revision D.01,
 Gaussian 09:  ES64L-G09RevD.01 24-Apr-2013

 ------------------------------------------------
 # B3LYP/6-31+G* int=ultrafine nosymm pop=nboread
 ------------------------------------------------

 -----
 A_B_0
 -----
 Symbolic Z-matrix:
 Charge =  0 Multiplicity = 1

                          Input orientation:
 ---------------------------------------------------------------------
 Center     Atomic      Atomic             Coordinates (Angstroms)
 Number     Number       Type             X           Y           Z
 ---------------------------------------------------------------------
      1          6           0        0.672749    0.000000    0.000000
      2          6           0       -0.672749    0.000000    0.000000
      3          1           0        1.242623    0.934806    0.000000
      4          1           0        1.242623   -0.934806    0.000000
      5          1           0       -1.242623    0.934806    0.000000
      6          1           0       -1.242623   -0.934806    0.000000
      7          6           0        0.672749    0.000000    5.000000
      8          6           0       -0.672749    0.000000    5.000000
      9          1           0        1.242623    0.934806    5.000000
     10          1           0        1.242623   -0.934806    5.000000
     11          1           0       -1.242623    0.934806    5.000000
     12          1           0       -1.242623   -0.934806    5.000000
 ---------------------------------------------------------------------

 SCF Done:  E(RB3LYP) =  -157.185575634     A.U. after    8 cycles

 Alpha  occ. eigenvalues --  -10.19631 -10.19631 -10.19551 -10.19550  -0.75974
 Alpha  occ. eigenvalues --   -0.75960  -0.58233  -0.58218  -0.47053  -0.47036
 Alpha  occ. eigenvalues --   -0.42050  -0.42036  -0.36114  -0.36098  -0.27541
 Alpha  occ. eigenvalues --   -0.27127
 Alpha virt. eigenvalues --   -0.01262  -0.00228   0.01735   0.02597   0.03660
 Alpha virt. eigenvalues --    0.04033   0.04585   0.05921   0.07575   0.08075
 Alpha virt. eigenvalues --    0.08219   0.09623   0.09972   0.11531   0.13219

 Mulliken charges:
               1
     1  C   -0.363230
     2  C   -0.363230
     3  H    0.181615
     4  H    0.181615
     5  H    0.181615
     6  H    0.181615
     7  C   -0.363230
     8  C   -0.363230
     9  H    0.181615
    10  H    0.181615
    11  H    0.181615
    12  H    0.181615
 Sum of Mulliken charges =   0.00000

 Dipole moment (field-independent basis, Debye):
    X=              0.0000    Y=              0.0000    Z=              0.0000  Tot=              0.0000
 Quadrupole moment (field-independent basis, Debye-Ang):
   XX=            -24.9185   YY=            -24.8488   ZZ=            -32.7467
   XY=              0.0000   XZ=              0.0000   YZ=              0.0000

 Summary of Natural Population Analysis:

                                       Natural Population
                Natural  -----------------------------------------------
    Atom  No    Charge         Core      Valence    Rydberg      Total
 -----------------------------------------------------------------------
      C    1   -0.44234      1.99926     4.42811    0.01497     6.44234
      C    2   -0.44234      1.99926     4.42811    0.01497     6.44234
      H    3    0.22117      0.00000     0.77795    0.00088     0.77883
      H    4    0.22117      0.00000     0.77795    0.00088     0.77883
      H    5    0.22117      0.00000     0.77795    0.00088     0.77883
      H    6    0.22117      0.00000     0.77795    0.00088     0.77883
      C    7   -0.44234      1.99926     4.42811    0.01497     6.44234
      C    8   -0.44234      1.99926     4.42811    0.01497     6.44234
      H    9    0.22117      0.00000     0.77795    0.00088     0.77883
      H   10    0.22117      0.00000     0.77795    0.00088     0.77883
      H   11    0.22117      0.00000     0.77795    0.00088     0.77883
      H   12    0.22117      0.00000     0.77795    0.00088     0.77883
 =======================================================================
   * Total *    0.00000      7.99704    23.93601    0.06695    32.00000

 Normal termination of Gaussian 09 at Sun Sep 18 08:50:27 2016.
