 Gaussian 09, Revision D.01,
 Gaussian 09:  ES64L-G09RevD.01 24-Apr-2013

 ----------------------------------------------
 # B3LYP/6-31+G* int=ultrafine nosymm punch(mo)
 ----------------------------------------------

 ----
 B_30
 ----
 Symbolic Z-matrix:
 Charge =  0 Multiplicity = 1

                          Input orientation:
 ---------------------------------------------------------------------
 Center     Atomic      Atomic             Coordinates (Angstroms)
 Number     Number       Type             X           Y           Z
 ---------------------------------------------------------------------
      1          6           0        0.672749    0.000000    5.000000
      2          6           0       -0.672749    0.000000    5.000000
      3          1           0        1.242623    0.809566    4.532597
      4          1           0        1.242623   -0.809566    5.467403
      5          1           0       -1.242623    0.809566    4.532597
      6          1           0       -1.242623   -0.809566    5.467403
 ---------------------------------------------------------------------

 SCF Done:  E(RB3LYP) =  -78.5929853630     A.U. after    8 cycles

 Alpha  occ. eigenvalues --  -10.19871 -10.19790  -0.76206  -0.58448  -0.47268
 Alpha  occ. eigenvalues --   -0.42267  -0.36322  -0.27596
 Alpha virt. eigenvalues --   -0.00988   0.02502   0.03257   0.04671   0.06957
 Alpha virt. eigenvalues --    0.08673   0.08745   0.12752   0.15668   0.17642
 Alpha virt. eigenvalues --    0.19040   0.24303   0.34233   0.34755   0.57994

 Mulliken charges:
               1
     1  C   -0.366091
     2  C   -0.366091
     3  H    0.183045
     4  H    0.183045
     5  H    0.183045
     6  H    0.183045
 Sum of Mulliken charges =   0.00000

 Dipole moment (field-independent basis, Debye):
    X=              0.0000    Y=              0.0000    Z=              0.0000  Tot=              0.0000
 Quadrupole moment (field-independent basis, Debye-Ang):
   XX=            -12.4310   YY=            -13.3392   ZZ=            -15.2040
   XY=              0.0000   XZ=              0.0000   YZ=             -1.6150

 Normal termination of Gaussian 09 at Sun Sep 18 08:53:27 2016.
